Name,SMILES,Solubility
3-(3-ethylcyclopentyl)propanoic acid,CCC1CCC(CCC(O)=O)C1,-3.2861163139999996
undec-10-enoic acid,OC(=O)CCCCCCCCC=C,-3.5528261451999996
"1,3-bis(prop-1-en-2-yl)benzene",CC(=C)c1cccc(c1)C(C)=C,-4.4511392251999995
"3-[(2E)-oct-2-en-1-yl]oxolane-2,5-dione; 3-[(2Z)-oct-2-en-1-yl]oxolane-2,5-dione",CCCCCC/C=C/C1CC(=O)OC1=O,-4.0217535151999995
2-[(E)-oct-2-enyl]butanedioic acid,CCCCC/C=C/CC(CC(O)=O)C(O)=O,-2.4042405738999997
"3,7-dimethyloct-6-enal",C[C@H](CCC=C(C)C)CC=O,-3.2437509469999997
3-[4-(propan-2-yl)phenyl]propanal,CC(C)c1ccc(CCC=O)cc1,-3.3026567858999996
3-(4-isopropylphenyl)-2-methylpropanal,CC(C)c1ccc(cc1)C(C)CC=O,-3.4598629013999997
"2-methylbuta-1,3-diene",CC(=C)C=C,-2.0257332356999997
butyl butanoate,CCCCOC(=O)CCC,-2.3610477790999997
"(6R,7R)-3-[(acetyloxy)methyl]-7-amino-8-oxo-5-thia-1-azabicyclo[4.2.0]oct-2-ene-2-carboxylic acid",CC(=O)OCC1=C(N2[C@H](SC1)[C@H](N)C2=O)C(O)=O,-2.6489777216999997
Vertofix,CC1CCC2C(C)(C)C3CC12CC(=C3C)C(C)=O,-4.6134788775999995
2-hexylcyclopentanone,CCCCCCC1CCCC1=O,-3.4515155375999997
decahydronaphthalen-2-yl acetate,CC(=O)OC1CCC2CCCCC2C1,-3.5605044151999996
"(4E)-5,9-dimethyldeca-4,8-dienal",CC(C)=CCC\C(C)=C/CCC=O,-3.5383035445999997
4-ethenylcyclohex-1-ene,C=CC1CCC=CC1,-3.3351930306999997
"1-(butan-2-yl)-4-{4-[4-(4-hydroxyphenyl)piperazin-1-yl]phenyl}-4,5-dihydro-1H-1,2,4-triazol-5-one",CCC(C)N1N=CN(C1=O)c2ccc(cc2)N3CCN(CC3)c4ccc(O)cc4,-4.8285219563999995
"1,3,5-trimethylbenzene",Cc1cc(C)cc(C)c1,-3.3826570589999996
5-hexyl-5-methyldihydrofuran-2(3H)-one,CCCCCCC1(C)CCC(=O)O1,-2.6432618238999996
"(4-tert-butyl-2,6-dimethylphenyl)acetonitrile",Cc1cc(cc(C)c1CC#N)C(C)(C)C,-4.7018118294999995
triphenylphosphine oxide,O=[P](c1ccccc1)(c2ccccc2)c3ccccc3,-2.8774727951999997
"(2E)-3-(3,4,5-trimethoxyphenyl)prop-2-enoic acid",COc1cc(\C=C\C(O)=O)cc(OC)c1OC,-2.8304701939999997
"tris(prop-2-en-1-yloxy)-1,3,5-triazine",C=CCOc1nc(OCC=C)nc(OCC=C)n1,-2.8742257801999997
5-amino-2-[(E)-2-(4-amino-2-sulfophenyl)ethenyl]benzene-1-sulfonic acid,Nc1ccc(\C=C\c2ccc(N)cc2[S](O)(=O)=O)c(c1)[S](O)(=O)=O,-4.0635303795999995
"2,4-bis(2-methylbutan-2-yl)phenol",CCC(C)(C)c1ccc(O)c(c1)C(C)(C)CC,-4.8928048539999995
"2-methyl-4,6-bis(methylsulfanyl)benzene-1,3-diamine; 4-methyl-2,6-bis(methylsulfanyl)benzene-1,3-diamine",CSc1cc(SC)c(N)c(C)c1N,-2.8569254582999997
4-tert-butylcyclohexan-1-ol,CC(C)(C)C1CCC(O)CC1,-3.1032621251999997
4-(propan-2-yl)benzaldehyde,CC(C)c1ccc(C=O)cc1,-2.7852565820999997
3-pentyloxan-4-yl acetate,CCCCCC1COCCC1OC(C)=O,-2.9987958882999997
3-methyl-4-propan-2-ylphenol,CC(C)c1ccc(O)cc1C,-2.8545113539999996
11-ethyl-5-methylpentadecanoic acid,CCCCC(CC)CCCCCC(C)CCCC(O)=O,-5.0561178370999995
hexyl 2-hydroxybenzoate,CCCCCCOC(=O)c1ccccc1O,-5.0458782075999995
4-[4-(propan-2-yloxy)benzenesulfonyl]phenol,CC(C)Oc1ccc(cc1)[S](=O)(=O)c2ccc(O)cc2,-4.1714457850999995
"estr-4-ene-3,17-dione",C[C@]12CC[C@H]3[C@@H](CCC4=CC(=O)CC[C@H]34)[C@@H]1CCC2=O,-3.1565006620999996
"1,6-bis(propan-2-yl) hexanedioate",CC(C)OC(=O)CCCCC(=O)OC(C)C,-3.1070289758999996
"1,4-dimethoxy-2-nitrobenzene",COc1ccc(OC)c(c1)[N+]([O-])=O,-3.0173250802999996
2-(tert-butylperoxy)-2-methylpropane,CC(C)(C)OOC(C)(C)C,-2.9320403695999997
"1,3-xylene",Cc1cccc(C)c1,-2.8328690377999997
phenyl 2-hydroxybenzoate,Oc1ccccc1C(=O)Oc2ccccc2,-3.1547687558999997
"N-[(8E)-1,5-dimethylbicyclo[3.2.1]octan-8-ylidene]hydroxylamine",CC12CCCC(C)(CC1)C2=NO,-3.0741522070999996
3-(4-tert-butylphenyl)propanal,CC(C)(C)c1ccc(CCC=O)cc1,-3.1588329056999997
isooctyl acrylate,CC(C)CCCCCOC(=O)C=C,-4.1706554664999995
"1,3-benzothiazole-2-thiol",S=C1Nc2ccccc2S1,-3.1515048920999997
"7-{[(2S,3R,4S,5S,6R)-4,5-dihydroxy-6-(hydroxymethyl)-3-{[(2S,3R,4R,5R,6S)-3,4,5-trihydroxy-6-methyloxan-2-yl]oxy}oxan-2-yl]oxy}-5-hydroxy-2-(4-hydroxyphenyl)-3,4-dihydro-2H-1-benzopyran-4-one",C[C@@H]1O[C@@H](O[C@@H]2[C@@H](O)[C@H](O)[C@@H](CO)O[C@H]2Oc3cc(O)c4C(=O)C[C@H](Oc4c3)c5ccc(O)cc5)[C@H](O)[C@H](O)[C@H]1O,-2.7224387152999996
"(2,4-dimethylcyclohex-3-en-1-yl)methyl acetate",CC1C=C(C)CCC1COC(C)=O,-3.2503985576999996
dodecan-1-ol,CCCCCCCCCCCCO,-4.9847464514999995
"2-hydroxy-1-{1-[4-(2-hydroxy-2-methylpropanoyl)phenyl]-1,3,3-trimethyl-2,3-dihydro-1H-inden-5-yl}-2-methylpropan-1-one; 2-hydroxy-1-{3-[4-(2-hydroxy-2-methylpropanoyl)phenyl]-1,1,3-trimethyl-2,3-dihydro-1H-inden-5-yl}-2-methylpropan-1-one; 2-hydroxy-2-methyl-1-[4-(prop-1-en-2-yl)phenyl]propan-1-one",CC(=C)c1ccc(cc1)C(=O)C(C)(C)O.CC(C)(O)C(=O)c2ccc(cc2)C3(C)CC(C)(C)c4cc(ccc34)C(=O)C(C)(C)O.CC(C)(O)C(=O)c5ccc(cc5)C6(C)CC(C)(C)c7ccc(cc67)C(=O)C(C)(C)O,-5.8273288791999995
tetraphenyl m-phenylene bis(phosphate),O=[P](Oc1ccccc1)(Oc2ccccc2)Oc3cccc(O[P](=O)(Oc4ccccc4)Oc5ccccc5)c3,-5.7380720067999995
"2,6-di-tert-butyl-4-methylphenol",Cc1cc(c(O)c(c1)C(C)(C)C)C(C)(C)C,-5.4623112879999995
2-[(2-hydroxyethyl)(octadecyl)amino]ethan-1-ol,CCCCCCCCCCCCCCCCCCN(CCO)CCO,-5.7752741916999994
diphenyl 4-(propan-2-yl)phenyl phosphate phenyl bis[4-(propan-2-yl)phenyl] phosphate triphenyl phosphate tris[4-(propan-2-yl)phenyl] phosphate,CC(C)c1ccc(O[P](=O)(Oc2ccc(cc2)C(C)C)Oc3ccc(cc3)C(C)C)cc1,-6.1371343953999995
(4-methyl-4-phenylpent-1-en-2-yl)benzene,CC(C)(CC(=C)c1ccccc1)c2ccccc2,-6.0118424703999995
"N-(carboxymethyl)-3-(dodecanoylamino)-N,N-dimethylpropan-1-aminium hydroxide",CCCCCCCCCCCC(=O)NCCC[N+](C)(C)CC([O-])=O,-3.1367509983999997
17-hydroxyandrostan-3-one,C[C@]12CC[C@H]3[C@@H](CC[C@H]4CC(=O)CC[C@]34C)[C@@H]1CC[C@@H]2O,-4.9189988506999995
"2,3-dimethylpentane; 2-methylpentane; 3-methylhexane; 3-methylpentane",CCCC(C)C.CCCC(C)CC.CCC(C)CC.CCC(C)C(C)C,-3.2704062977999997
2-[(2-cyanoethyl)[4-[(6-nitrobenzothiazol-2-yl)azo]phenyl]amino]ethyl acetate,CC(=O)OCCN(CCC#N)c1ccc(cc1)N=Nc2sc3cc(ccc3n2)[N+]([O-])=O,-4.3409088982999995
docosan-1-ol,CCCCCCCCCCCCCCCCCCCCCCO,-5.5140281478999995
"1,4-xylene 4-(methoxycarbonyl)benzoic acid 4-methylbenzoic acid benzoic acid 1,2,4-trimethyl benzene-1,2,4-tricarboxylate 1,2-dimethyl 4-methylbenzene-1,2-dicarboxylate 1,2-dimethyl benzene-1,2-dicarboxylate 1,3-dimethyl benzene-1,3-dicarboxylate 1,4-dimethyl 2-[4-(methoxycarbonyl)phenyl]benzene-1,4-dicarboxylate 1,4-dimethyl benzene-1,4-dicarboxylate 1-[4-(methoxycarbonyl)phenyl]methyl 4-methyl benzene-1,4-dicarboxylate 1-methyl 4-(4-methylphenyl)methyl benzene-1,4-dicarboxylate 2,6-dimethyl 9-oxo-9H-fluorene-2,6-dicarboxylate [4-(methoxycarbonyl)phenyl]methyl 4-methylbenzoate methyl 1-methyl-6-oxo-6H-benzo[c]chromene-4-carboxylate methyl 2-[4-(methoxycarbonyl)phenyl]-4-methylbenzoate methyl 2-[4-(methoxycarbonyl)phenyl]benzoate methyl 3-[4-(methoxycarbonyl)phenyl]benzoate methyl 4-(dimethoxymethyl)benzoate methyl 4-(hydroxymethyl)benzoate methyl 4-[4-(methoxycarbonyl)phenyl]benzoate methyl 4-formylbenzoate methyl 4-methylbenzoate methyl benzoate",COC(OC)c1ccc(cc1)C(=O)OC.COC(=O)c2ccccc2.COC(=O)c3ccc(C)cc3.COC(=O)c4ccc(CO)cc4.COC(=O)c5ccc(COC(=O)c6ccc(C)cc6)cc5.COC(=O)c7ccc(COC(=O)c8ccc(cc8)C(=O)OC)cc7.COC(=O)c9ccc(C=O)cc9.COC(=O)c%10ccc(cc%10)C(O)=O.COC(=O)c%11ccc(cc%11)C(=O)OC.COC(=O)c%12ccc(cc%12)C(=O)OCc%13ccc(C)cc%13.COC(=O)c%14ccc(cc%14)c%15ccc(cc%15)C(=O)OC.COC(=O)c%16ccc(cc%16)c%17cccc(c%17)C(=O)OC.COC(=O)c%18ccc(cc%18)c%19ccccc%19C(=O)OC.COC(=O)c%20ccc(cc%20)c%21cc(C)ccc%21C(=O)OC.COC(=O)c%22ccc(cc%22)c%23cc(ccc%23C(=O)OC)C(=O)OC.COC(=O)c%24cccc(c%24)C(=O)OC.COC(=O)c%25ccc(C(=O)OC)c(c%25)C(=O)OC.COC(=O)c%26ccc%27c(c%26)C(=O)c%28ccc(cc%27%28)C(=O)OC.COC(=O)c%29ccc(C)c%30c%29OC(=O)c%31ccccc%30%31.COC(=O)c%32ccccc%32C(=O)OC.COC(=O)c%33ccc(C)cc%33C(=O)OC.Cc%34ccc(C)cc%34.Cc%35ccc(cc%35)C(O)=O.OC(=O)c%36ccccc%36,-6.7316777727999995
"3-hydroxy-2,2-dimethylpropyl heptanoate",CCCCCCC(O)=O.CC(C)(CO)CO,-6.6708690080999995
"4,4',4''-butane-1,1,3-triyltris(2-tert-butyl-5-methylphenol)",CC(CC(c1cc(c(O)cc1C)C(C)(C)C)c2cc(c(O)cc2C)C(C)(C)C)c3cc(c(O)cc3C)C(C)(C)C,-7.1341930504999995
"beta,beta-carotene",CC1=C(\C=C\C(C)=C\C=C\C(C)=C\C=C\C=C(C)\C=C\C=C(C)\C=C\C2=C(C)CCCC2(C)C)C(C)(C)CCC1,-7.5537924381
"N-(10-benzamido-6,13-diacetamido-2,9-diethoxy-5,12-dioxa-7,14-diazapentacen-3-yl)benzamide",CCOc1cc2N=C3C(=C4Oc5cc(NC(=O)c6ccccc6)c(OCC)cc5N=C4C(=C3Oc2cc1NC(=O)c7ccccc7)NC(C)=O)NC(C)=O,-7.8613826501
"4-(2-{2-amino-4-oxo-3H,4H,7H-pyrrolo[2,3-d]pyrimidin-5-yl}ethyl)benzoic acid",NC1=Nc2[nH]cc(CCc3ccc(cc3)C(O)=O)c2C(=O)N1,-3.5742890364999997
"3-(oxiran-2-ylmethoxy)-N,N-bis(oxiran-2-ylmethyl)aniline",C1OC1COc2cccc(c2)N(CC3CO3)CC4CO4,-2.1925611891999996
"2,3-bis(nitrooxy)propyl nitrate",[O-][N+](=O)OCC(CO[N+]([O-])=O)O[N+]([O-])=O,-2.1520684653999997
2-(butan-2-yl)phenol,CCC(C)c1ccccc1O,-2.0123777928999997
"5-amino-2,3-dihydro-1H-1,3-benzodiazol-2-one",Nc1ccc2NC(=O)Nc2c1,-2.3347829022999997
ethyl 2-methylbutanoate,CCOC(=O)C(C)CC,-2.3364163688999997
"1,6-bis[2-(2-butoxyethoxy)ethyl] hexanedioate",CCCCOCCOCCOC(=O)CCCCC(=O)OCCOCCOCCCC,-2.8821848863999997
1-methoxy-4-methylbenzene,COc1ccc(C)cc1,-2.3395421012999997
6'-methoxycinchonan-9-ol,COc1ccc2nccc([C@@H](O)[C@@H]3CC4CCN3C[C@@H]4C=C)c2c1,-2.8121429702999996
6'-methoxycinchonan-9-ol,COc1ccc2nccc([C@H](O)[C@H]3C[C@@H]4CCN3C[C@@H]4C=C)c2c1,-2.8121429702999996
4-methylene-2-(2-methylprop-1-en-1-yl)tetrahydro-2H-pyran,CC(C)=CC1CC(=C)CCO1,-2.5104223591999997
"1,4-bis(vinyloxy)butane",C=COCCCCOC=C,-2.6477435097999997
"3-(2-hydroxyethyl)-1,2,3,4-tetrahydroquinazoline-2,4-dione",OCCN1C(=O)Nc2ccccc2C1=O,-3.1128936427999996
2-{[(2-ethylhexyl)oxy]methyl}oxirane,CCCCC(CC)COCC1CO1,-3.1148651614999996
2-isobutyl-4-methyltetrahydro-2H-pyran,CC(C)CC1CC(C)CCO1,-3.0799294806999997
"(4E)-3-methyl-5-(2,2,3-trimethylcyclopent-3-en-1-yl)pent-4-en-2-ol",CC(O)C(C)\C=C/C1CC=C(C)C1(C)C,-3.786028703399999
"1,10-didocosyl decanedioate",CCCCCCCCCCCCCCCCCCCCCCOC(=O)CCCCCCCCC(=O)OCCCCCCCCCCCCCCCCCCCCCC,-6.4056602279999995
methyl 5-amino-4-cyano-3-methylthiophene-2-carboxylate,COC(=O)c1sc(N)c(C#N)c1C,-4.9917376213999995
"4-[(3S)-1,3-bis(5-cyclohexyl-4-hydroxy-2-methylphenyl)butyl]-2-cyclohexyl-5-methylphenol",C[C@@H](C[C@H](c1cc(C2CCCCC2)c(O)cc1C)c3cc(C4CCCCC4)c(O)cc3C)c5cc(C6CCCCC6)c(O)cc5C,-7.3965020268
"1,4-bis(16-methylheptadecyl) 2-hydroxybutanedioate",CC(C)CCCCCCCCCCCCCCCOC(=O)CC(O)C(=O)OCCCCCCCCCCCCCCCC(C)C,-7.9926275988
"2-(3-Methoxypropyl)-9(or 10)-methylbenzimidazo(2,1-b)benzo(lmn)(3,8)phenanthroline-1,3,6(2H)-trione",COCCCN1C(=O)c2ccc3C(=O)n4c5ccc(C)cc5nc4c6ccc(C1=O)c2c36,-6.7715099067999995
alpha-terpineol,CC1=CC[C@@H](CC1)C(C)(C)O,-2.3369999999999997
1-aminoacridine,Nc1cccc2nc3ccccc3cc12,-4.2219999999999995
3-methyl-n-oxidepyridine,CC1=CC=C[NH++]([O-])[CH-]1,0.9621
"cyclohexanone, 2-(1-cyclohexen-1-yl)-",O=C1CCCCC1C2=CCCCC2,-2.7739999999999996
n-oxidenicotinic acid,OC(=O)C1=C[NH++]([O-])[CH-]C=C1,-1.2983
"3,5-pyridinedicarboxylic acid, 2,6-dimethyl-",Cc1nc(C)c(cc1C(O)=O)C(O)=O,-2.8089999999999997
fuberidazole,[nH]1c2ccccc2nc1c3occc3,-3.4139999999999997
azacyclohexadecan-2-one,O=C1CCCCCCCCCCCCCCN1,-2.8739999999999997
ibuproxam,CC(C)Cc1ccc(cc1)C(C)C(=O)NO,-3.0439999999999996
3-methylacetanilide,CC(=O)Nc1cccc(C)c1,-2.0909999999999997
"carbamic acid, sulfamoyl-, 2-ethylhexyl ester",CCCCC(CC)COC(=O)N[S](N)(=O)=O,-2.4019999999999997
RTI 16,CCN2c1ncccc1N(C)C(=S)c3cccnc23 ,-4.6339999999999995